 Gaussian 09, Revision B.01,
 Gaussian 09:  EM64L-G09RevB.01 12-Aug-2010

 ----------------------------------------------------------------------
 #B3LYP/6-31G* SCF=tight Test Pop=MK iop(6/33=2) iop(6/42=6) iop(6/50=1
 )
 ----------------------------------------------------------------------

 99/5=1,9=1/99;

 Symbolic Z-matrix:
 Charge =  0 Multiplicity = 1

                         Standard orientation:
 ---------------------------------------------------------------------
 Center     Atomic      Atomic             Coordinates (Angstroms)
 Number     Number       Type             X           Y           Z
 ---------------------------------------------------------------------
      1          6           0       -1.933465   -1.263510    1.107556
      2          6           0       -3.336291   -1.092743    1.678437
      3          6           0       -3.430025    0.175199    2.533817
      4          6           0       -5.520861   -1.311795    0.767542
      5          6           0       -6.312284   -1.124920   -0.531193
      6          6           0       -6.496597   -2.440683   -1.285555
      7          6           0       -5.880538    1.074166   -1.286114
      8          6           0       -4.636795    1.952941   -1.193556
      9          6           0       -4.568517    2.736415    0.122862
     10          6           0       -0.281091    0.333448    0.492346
     11          6           0       -0.357195    1.796108    0.926468
     12          6           0        0.406235    0.134954   -0.861866
     13          6           0        2.730584    0.113968   -0.420111
     14          6           0        3.488211   -0.398959   -1.642542
     15          6           0        3.584953    1.068159    0.419202
     16          6           0        5.887568    0.747194    0.907768
     17          6           0        6.885606    1.903530    0.999806
     18          6           0        6.539124   -0.551254    0.429763
     19          6           0        8.594717   -1.438970   -0.353297
     20          6           0        8.793760   -1.410118   -1.857792
     21          8           0       -1.623633   -0.157079    0.382479
     22          8           0       -1.216444   -2.221374    1.249779
     23          8           0       -4.226605   -1.014122    0.546051
     24          8           0       -5.988161   -1.660251    1.827309
     25          8           0       -5.586428   -0.235040   -1.393673
     26          8           0       -7.008914    1.523863   -1.258006
     27          8           0       -3.488540    1.145432   -1.335223
     28          8           0       -0.026696   -0.533863   -1.771191
     29          8           0        1.572793    0.817292   -0.901161
     30          8           0        3.179418    1.746849    1.333328
     31          8           0        4.851244    1.056228   -0.044611
     32          8           0        6.024880   -1.644603    0.425662
     33          8           0        7.789863   -0.287107    0.002063
     34          1           0       -3.442409    0.599236   -0.529030
     35          1           0       -3.593721   -1.911529    2.317290
     36          1           0       -3.180335    1.026792    1.937032
     37          1           0       -2.747683    0.102763    3.354456
     38          1           0       -4.426731    0.280621    2.906743
     39          1           0       -7.274445   -0.737251   -0.267836
     40          1           0       -5.539027   -2.836135   -1.553195
     41          1           0       -7.070290   -2.266267   -2.172151
     42          1           0       -7.009264   -3.141787   -0.660738
     43          1           0       -4.685568    2.673753   -1.982685
     44          1           0       -4.518575    2.051522    0.943527
     45          1           0       -5.442146    3.346256    0.221022
     46          1           0       -3.697256    3.358411    0.123572
     47          1           0        0.298776   -0.190723    1.222943
     48          1           0       -0.932495    2.349907    0.214183
     49          1           0        0.630470    2.203753    0.981312
     50          1           0       -0.823015    1.859155    1.887827
     51          1           0        2.465899   -0.713225    0.205375
     52          1           0        3.754620    0.426242   -2.269057
     53          1           0        2.866008   -1.076414   -2.189497
     54          1           0        4.375413   -0.906202   -1.325805
     55          1           0        5.498829    0.616116    1.895974
     56          1           0        7.312255    2.084593    0.034696
     57          1           0        7.662139    1.650200    1.690983
     58          1           0        6.381153    2.784394    1.337432
     59          1           0        9.542513   -1.389314    0.141213
     60          1           0        8.108903   -2.343905   -0.054589
     61          1           0        9.279911   -0.498335   -2.136152
     62          1           0        7.842907   -1.469480   -2.344462
     63          1           0        9.398355   -2.241746   -2.154085
 ---------------------------------------------------------------------

 SCF Done:  E(RB3LYP) =  -1758.07507324     A.U. after   15 cycles

 The electronic state is 1-A.
 Alpha  occ. eigenvalues --  -19.22367 -19.21574 -19.21036 -19.20596 -19.18847
 Alpha  occ. eigenvalues --  -19.18760 -19.17156 -19.16538 -19.16369 -19.16279
 Alpha  occ. eigenvalues --  -19.15653 -19.13959 -19.12537 -10.34319 -10.33998
 Alpha  occ. eigenvalues --  -10.33879 -10.33847 -10.32805 -10.31285 -10.28236
 Alpha  occ. eigenvalues --  -10.27670 -10.27661 -10.27241 -10.26976 -10.25326
 Alpha  occ. eigenvalues --  -10.23963 -10.19827 -10.19026 -10.18911 -10.18909
 Alpha  occ. eigenvalues --  -10.18512 -10.17882 -10.17522  -1.13849  -1.13407
 Alpha  occ. eigenvalues --   -1.12341  -1.12107  -1.10629  -1.10368  -1.04867
 Alpha  occ. eigenvalues --   -1.04385  -1.04305  -1.04039  -1.02886  -1.01845
 Alpha  occ. eigenvalues --   -1.00836  -0.83354  -0.82921  -0.80803  -0.79651
 Alpha  occ. eigenvalues --   -0.78650  -0.77529  -0.76149  -0.70898  -0.69408
 Alpha  occ. eigenvalues --   -0.68604  -0.68046  -0.67289  -0.66295  -0.65457
 Alpha  occ. eigenvalues --   -0.62700  -0.61187  -0.59930  -0.59336  -0.58618
 Alpha  occ. eigenvalues --   -0.57674  -0.55443  -0.55032  -0.53656  -0.52552
 Alpha  occ. eigenvalues --   -0.52363  -0.50682  -0.50174  -0.49996  -0.49192
 Alpha  occ. eigenvalues --   -0.48750  -0.48344  -0.48211  -0.47992  -0.47286
 Alpha  occ. eigenvalues --   -0.47024  -0.46440  -0.46040  -0.45783  -0.45050
 Alpha  occ. eigenvalues --   -0.44811  -0.44035  -0.43331  -0.42826  -0.42619
 Alpha  occ. eigenvalues --   -0.42478  -0.42084  -0.41583  -0.41465  -0.41335
 Alpha  occ. eigenvalues --   -0.41230  -0.40869  -0.40484  -0.40361  -0.40039
 Alpha  occ. eigenvalues --   -0.39822  -0.39611  -0.39522  -0.38820  -0.38596
 Alpha  occ. eigenvalues --   -0.38319  -0.37335  -0.37181  -0.37117  -0.36566
 Alpha  occ. eigenvalues --   -0.36184  -0.35527  -0.35115  -0.33475  -0.32847
 Alpha  occ. eigenvalues --   -0.32646  -0.32313  -0.31985  -0.31946  -0.30646
 Alpha  occ. eigenvalues --   -0.29326  -0.29062  -0.28872  -0.28724  -0.27990
 Alpha  occ. eigenvalues --   -0.27785  -0.24439
 Alpha virt. eigenvalues --   -0.04608  -0.03210  -0.02363  -0.01479  -0.01416
 Alpha virt. eigenvalues --   -0.00771   0.07410   0.08137   0.09132   0.09416
 Alpha virt. eigenvalues --    0.10207   0.10350   0.11172   0.12067   0.12717

 Mulliken atomic charges:
              1
     1  C    0.614909
     2  C    0.048285
     3  C   -0.501733
     4  C    0.615729
     5  C    0.032773
     6  C   -0.464769
     7  C    0.589998
     8  C    0.031489
     9  C   -0.473465
    10  C    0.026935
    11  C   -0.472106
    12  C    0.596139
    13  C    0.002808
    14  C   -0.442551
    15  C    0.627631
    16  C    0.011417
    17  C   -0.441711
    18  C    0.645227
    19  C   -0.074766
    20  C   -0.456327
    21  O   -0.454070
    22  O   -0.437797
    23  O   -0.463558
    24  O   -0.467772
    25  O   -0.444915
    26  O   -0.458638
    27  O   -0.633947
    28  O   -0.401238
    29  O   -0.465382
    30  O   -0.437744
    31  O   -0.456151
    32  O   -0.472393
    33  O   -0.448426
    34  H    0.438899
    35  H    0.195042
    36  H    0.187684
    37  H    0.169685
    38  H    0.191091
    39  H    0.195683
    40  H    0.180513
    41  H    0.183429
    42  H    0.172407
    43  H    0.173316
    44  H    0.140861
    45  H    0.170912
    46  H    0.168686
    47  H    0.182424
    48  H    0.181285
    49  H    0.200788
    50  H    0.154835
    51  H    0.187664
    52  H    0.167699
    53  H    0.173721
    54  H    0.170005
    55  H    0.186316
    56  H    0.176092
    57  H    0.159194
    58  H    0.170951
    59  H    0.163089
    60  H    0.189005
    61  H    0.165990
    62  H    0.170505
    63  H    0.158351
 Sum of Mulliken atomic charges =   0.00000

 Dipole moment (field-independent basis, Debye):
    X=              7.1681    Y=              0.3986    Z=              2.9496  Tot=              7.7615
 Quadrupole moment (field-independent basis, Debye-Ang):
   XX=           -156.9133   YY=           -195.7699   ZZ=           -195.2485
   XY=              1.4527   XZ=             -4.2176   YZ=              6.3827

 Normal termination of Gaussian 09 at Wed Nov 22 14:30:53 2023.
 Normal termination of Gaussian 09 at Wed Nov 22 14:30:46 2023.
